  -2.400000      0.0000000E+00
  -2.340000      0.0000000E+00
  -2.280000      0.0000000E+00
  -2.220000      0.0000000E+00
  -2.160000      0.0000000E+00
  -2.100000      0.0000000E+00
  -2.040000      0.0000000E+00
  -1.980000     -3.6940925E-22
  -1.920000     -3.5426118E-21
  -1.860000     -1.5495418E-20
  -1.800000     -3.5977659E-20
  -1.740000     -2.1216711E-20
  -1.680000      1.6127803E-19
  -1.620000      6.6992598E-19
  -1.560000      1.3475671E-18
  -1.500000      1.1621080E-18
  -1.440000     -1.8738441E-18
  -1.380000     -9.0745353E-18
  -1.320000     -1.7310412E-17
  -1.260000     -1.5633274E-17
  -1.200000      1.1586756E-17
  -1.140000      6.9500635E-17
  -1.080000      1.2968355E-16
  -1.020000      1.1959966E-16
 -0.9600000     -4.5769217E-17
 -0.9000000     -3.7874115E-16
 -0.8400000     -7.2056717E-16
 -0.7800000     -7.2713358E-16
 -0.7200000     -3.7373770E-17
 -0.6600000      1.3819070E-15
 -0.6000000      2.9088689E-15
 -0.5400000      3.2921862E-15
 -0.4800000      1.2807305E-15
 -0.4200000     -3.2776969E-15
 -0.3600000     -8.5283707E-15
 -0.3000000     -1.0814427E-14
 -0.2400000     -6.5169915E-15
 -0.1800000      5.0362631E-15
 -0.1200000      1.9372325E-14
 -5.9999999E-02  2.7526994E-14
  0.0000000E+00  2.0489168E-14
  5.9999999E-02 -4.1582165E-15
  0.1200000     -3.7412324E-14
  0.1800000     -6.0209135E-14
  0.2400000     -5.2534308E-14
  0.3000000     -6.8199142E-15
  0.3600000      6.2163253E-14
  0.4200000      1.1893722E-13
  0.4800000      1.2318331E-13
  0.5400000      5.3806890E-14
  0.6000000     -7.1952461E-14
  0.6600000     -1.9781011E-13
  0.7200000     -2.5126784E-13
  0.7800000     -1.8176504E-13
  0.8400000      5.0602926E-15
  0.9000000      2.3765815E-13
  0.9600000      4.0362684E-13
   1.020000      4.0191900E-13
   1.080000      1.9850201E-13
   1.140000     -1.4349253E-13
   1.200000     -4.7877230E-13
   1.260000     -6.3928837E-13
   1.320000     -5.1497413E-13
   1.380000     -1.1898790E-13
   1.440000      3.9738498E-13
   1.500000      7.9628659E-13
   1.560000      8.5787643E-13
   1.620000      4.9570477E-13
   1.680000     -1.7376764E-13
   1.740000     -8.5333948E-13
   1.800000     -1.1873480E-12
   1.860000     -9.4071181E-13
   1.920000     -1.4973820E-13
   1.980000      8.4513391E-13
   2.040000      1.5290852E-12
   2.100000      1.4669422E-12
   2.160000      5.6291950E-13
   2.220000     -8.2157957E-13
   2.280000     -1.9879070E-12
   2.340000     -2.2341402E-12
   2.400000     -1.2502291E-12
   2.460000      6.4141514E-13
   2.520000      2.5624836E-12
   2.580000      3.4780800E-12
   2.640000      2.7404218E-12
   2.700000      4.9209589E-13
   2.760000     -2.3126839E-12
   2.820000     -4.3246565E-12
   2.880000     -4.4729515E-12
   2.940000     -2.5559526E-12
   3.000000      5.7466260E-13
   3.060000      3.3683293E-12
   3.120000      4.3246821E-12
   3.180000      2.7793213E-12
   3.240000     -6.6993172E-13
   3.300000     -4.3313981E-12
   3.360000     -6.1370193E-12
   3.420000     -4.6018653E-12
   3.480000      3.9989222E-13
   3.540000      7.3941712E-12
   3.600000      1.3728711E-11
   3.660000      1.6514031E-11
   3.720000      1.3735238E-11
   3.780000      5.1197484E-12
   3.840000     -7.5681648E-12
   3.900000     -2.0935455E-11
   3.960000     -3.0955866E-11
   4.020000     -3.4226639E-11
   4.080000     -2.9052059E-11
   4.140000     -1.5958320E-11
   4.200000      2.5694631E-12
   4.260000      2.3057800E-11
   4.320000      4.2379576E-11
   4.380000      5.8956583E-11
   4.440000      7.3373523E-11
   4.500000      8.8173156E-11
   4.560000      1.0692364E-10
   4.620000      1.3292312E-10
   4.680000      1.6801772E-10
   4.740000      2.1191128E-10
   4.800000      2.6209848E-10
   4.860000      3.1427863E-10
   4.920000      3.6293388E-10
   4.980000      4.0175929E-10
   5.040000      4.2380088E-10
   5.100000      4.2141293E-10
   5.160000      3.8635675E-10
   5.220000      3.1042699E-10
   5.280000      1.8684723E-10
   5.340000      1.2350566E-11
   5.400000     -2.1053376E-10
   5.460000     -4.7176929E-10
   5.520000     -7.5350398E-10
   5.580000     -1.0317019E-09
   5.640000     -1.2796771E-09
   5.700000     -1.4728222E-09
   5.760000     -1.5933236E-09
   5.820000     -1.6335487E-09
   5.880000     -1.5971647E-09
   5.940000     -1.4977881E-09
   6.000000     -1.3557956E-09
   6.060000     -1.1945092E-09
   6.120000     -1.0370711E-09
   6.180000     -9.0486474E-10
   6.240000     -8.1752810E-10
   6.300000     -7.9376672E-10
   6.360000     -8.5170987E-10
   6.420000     -1.0077170E-09
   6.480000     -1.2733112E-09
   6.540000     -1.6509861E-09
   6.600000     -2.1304807E-09
   6.660000     -2.6873017E-09
   6.720000     -3.2846110E-09
   6.780000     -3.8783385E-09
   6.840000     -4.4241211E-09
   6.900000     -4.8840145E-09
   6.960000     -5.2312061E-09
   7.020000     -5.4520140E-09
   7.080000     -5.5456746E-09
   7.140000     -5.5231530E-09
   7.200000     -5.4060538E-09
   7.260000     -5.2258469E-09
   7.320000     -5.0226023E-09
   7.380000     -4.8419833E-09
   7.440000     -4.7296602E-09
   7.500000     -4.7234847E-09
   7.560000     -4.8451008E-09
   7.620000     -5.0934474E-09
   7.680000     -5.4425353E-09
   7.740000     -5.8448113E-09
   7.800000     -6.2398779E-09
   7.860000     -6.5667503E-09
   7.920000     -6.7767356E-09
   7.980000     -6.8436883E-09
   8.040000     -6.7689458E-09
   8.100000     -6.5796053E-09
   8.160000     -6.3206649E-09
   8.220000     -6.0434004E-09
   8.280000     -5.7935599E-09
   8.340000     -5.6029648E-09
   8.400000     -5.4868172E-09
   8.460000     -5.4467626E-09
   8.520000     -5.4775340E-09
   8.580000     -5.5737073E-09
   8.640000     -5.7333800E-09
   8.700000     -5.9572640E-09
   8.760000     -6.2439969E-09
   8.820000     -6.5842869E-09
   8.880000     -6.9570474E-09
   8.940000     -7.3297439E-09
   9.000000     -7.6633748E-09
   9.060000     -7.9206339E-09
   9.120000     -8.0746831E-09
   9.180000     -8.1158147E-09
   9.240000     -8.0540765E-09
   9.300000     -7.9170945E-09
   9.360000     -7.7436653E-09
   9.420000     -7.5747186E-09
   9.480000     -7.4440178E-09
   9.540000     -7.3711082E-09
   9.600000     -7.3584614E-09
   9.660000     -7.3935356E-09
   9.720000     -7.4547843E-09
   9.780000     -7.5192714E-09
   9.840000     -7.5690627E-09
   9.900000     -7.5943296E-09
   9.960000     -7.5926838E-09
   10.02000     -7.5659905E-09
   10.08000     -7.5167099E-09
   10.14000     -7.4454678E-09
   10.20000     -7.3503674E-09
   10.26000     -7.2273361E-09
   10.32000     -7.0703954E-09
   10.38000     -6.8712409E-09
   10.44000     -6.6184143E-09
   10.50000     -6.2969754E-09
   10.56000     -5.8893521E-09
   10.62000     -5.3772840E-09
   10.68000     -4.7440567E-09
   10.74000     -3.9761585E-09
   10.80000     -3.0640923E-09
   10.86000     -2.0028312E-09
   10.92000     -7.9264800E-10
   10.98000      5.5943489E-10
   11.04000      2.0381843E-09
   11.10000      3.6197767E-09
   11.16000      5.2732503E-09
   11.22000      6.9635271E-09
   11.28000      8.6548129E-09
   11.34000      1.0312998E-08
   11.40000      1.1906413E-08
   11.46000      1.3405400E-08
   11.52000      1.4781787E-08
   11.58000      1.6009183E-08
   11.64000      1.7064178E-08
   11.70000      1.7927835E-08
   11.76000      1.8586750E-08
   11.82000      1.9033482E-08
   11.88000      1.9266709E-08
   11.94000      1.9291482E-08
   12.00000      1.9119508E-08
   12.06000      1.8768896E-08
   12.12000      1.8262966E-08
   12.18000      1.7628411E-08
   12.24000      1.6893845E-08
   12.30000      1.6089643E-08
   12.36000      1.5248785E-08
   12.42000      1.4407092E-08
   12.48000      1.3600906E-08
   12.54000      1.2861630E-08
   12.60000      1.2209053E-08
   12.66000      1.1647178E-08
   12.72000      1.1165853E-08
   12.78000      1.0748583E-08
   12.84000      1.0383213E-08
   12.90000      1.0069991E-08
   12.96000      9.8226396E-09
   13.02000      9.6618091E-09
   13.08000      9.6044390E-09
   13.14000      9.6544754E-09
   13.20000      9.7991695E-09
   13.26000      1.0011776E-08
   13.32000      1.0258431E-08
   13.38000      1.0505974E-08
   13.44000      1.0728560E-08
   13.50000      1.0912576E-08
   13.56000      1.1059945E-08
   13.62000      1.1189115E-08
   13.68000      1.1332112E-08
   13.74000      1.1526559E-08
   13.80000      1.1803956E-08
   13.86000      1.2178377E-08
   13.92000      1.2640791E-08
   13.98000      1.3162145E-08
   14.04000      1.3704057E-08
   14.10000      1.4231912E-08
   14.16000      1.4724148E-08
   14.22000      1.5173931E-08
   14.28000      1.5583812E-08
   14.34000      1.5957395E-08
   14.40000      1.6292615E-08
   14.46000      1.6579078E-08
   14.52000      1.6799181E-08
   14.58000      1.6931153E-08
   14.64000      1.6952663E-08
   14.70000      1.6844877E-08
   14.76000      1.6597332E-08
   14.82000      1.6212940E-08
   14.88000      1.5710867E-08
   14.94000      1.5124504E-08
   15.00000      1.4493417E-08
   15.06000      1.3851262E-08
   15.12000      1.3214298E-08
   15.18000      1.2575459E-08
   15.24000      1.1906584E-08
   15.30000      1.1167667E-08
   15.36000      1.0319201E-08
   15.42000      9.3330961E-09
   15.48000      8.1991720E-09
   15.54000      6.9265647E-09
   15.60000      5.5409237E-09
   15.66000      4.0786445E-09
   15.72000      2.5790141E-09
   15.78000      1.0751721E-09
   15.84000     -4.1459608E-10
   15.90000     -1.8928401E-09
   15.96000     -3.3837628E-09
   16.02000     -4.9277409E-09
   16.08000     -6.5707351E-09
   16.14000     -8.3518961E-09
   16.20000     -1.0293421E-08
   16.26000     -1.2395642E-08
   16.32000     -1.4637987E-08
   16.38000     -1.6984197E-08
   16.44000     -1.9389024E-08
   16.50000     -2.1804043E-08
   16.56000     -2.4181800E-08
   16.62000     -2.6478899E-08
   16.68000     -2.8659347E-08
   16.74000     -3.0698708E-08
   16.80000     -3.2588257E-08
   16.86000     -3.4337184E-08
   16.92000     -3.5970732E-08
   16.98000     -3.7523719E-08
   17.04000     -3.9030962E-08
   17.10000     -4.0517968E-08
   17.16000     -4.1995431E-08
   17.22000     -4.3459661E-08
   17.28000     -4.4898059E-08
   17.34000     -4.6296673E-08
   17.40000     -4.7645774E-08
   17.46000     -4.8940933E-08
   17.52000     -5.0179480E-08
   17.58000     -5.1354696E-08
   17.64000     -5.2451224E-08
   17.70000     -5.3444182E-08
   17.76000     -5.4302703E-08
   17.82000     -5.4996420E-08
   17.88000     -5.5502557E-08
   17.94000     -5.5811128E-08
   18.00000     -5.5926950E-08
   18.06000     -5.5868156E-08
   18.12000     -5.5661943E-08
   18.18000     -5.5338568E-08
   18.24000     -5.4924879E-08
   18.30000     -5.4438576E-08
   18.36000     -5.3884367E-08
   18.42000     -5.3253082E-08
   18.48000     -5.2524523E-08
   18.54000     -5.1674025E-08
   18.60000     -5.0681763E-08
   18.66000     -4.9542603E-08
   18.72000     -4.8273289E-08
   18.78000     -4.6913780E-08
   18.84000     -4.5520977E-08
   18.90000     -4.4155730E-08
   18.96000     -4.2866784E-08
   19.02000     -4.1677264E-08
   19.08000     -4.0578509E-08
   19.14000     -3.9533504E-08
   19.20000     -3.8488380E-08
   19.26000     -3.7387704E-08
   19.32000     -3.6188435E-08
   19.38000     -3.4869121E-08
   19.44000     -3.3433079E-08
   19.50000     -3.1906310E-08
   19.56000     -3.0331410E-08
   19.62000     -2.8758933E-08
   19.68000     -2.7237524E-08
   19.74000     -2.5804971E-08
   19.80000     -2.4482755E-08
   19.86000     -2.3276231E-08
   19.92000     -2.2180339E-08
   19.98000     -2.1188102E-08
   20.04000     -2.0297348E-08
   20.10000     -1.9512074E-08
   20.16000     -1.8837957E-08
   20.22000     -1.8275186E-08
   20.28000     -1.7813409E-08
   20.34000     -1.7432116E-08
   20.40000     -1.7106290E-08
   20.46000     -1.6813933E-08
   20.52000     -1.6541250E-08
   20.58000     -1.6283208E-08
   20.64000     -1.6040250E-08
   20.70000     -1.5813857E-08
   20.76000     -1.5603449E-08
   20.82000     -1.5405345E-08
   20.88000     -1.5212885E-08
   20.94000     -1.5016665E-08
   21.00000     -1.4804818E-08
   21.06000     -1.4564324E-08
   21.12000     -1.4283973E-08
   21.18000     -1.3958281E-08
   21.24000     -1.3590355E-08
   21.30000     -1.3191882E-08
   21.36000     -1.2780110E-08
   21.42000     -1.2373595E-08
   21.48000     -1.1989054E-08
   21.54000     -1.1640337E-08
   21.60000     -1.1338381E-08
   21.66000     -1.1090026E-08
   21.72000     -1.0894664E-08
   21.78000     -1.0740260E-08
   21.84000     -1.0602069E-08
   21.90000     -1.0446747E-08
   21.96000     -1.0241496E-08
   22.02000     -9.9644595E-09
   22.08000     -9.6113375E-09
   22.14000     -9.1950207E-09
   22.20000     -8.7390406E-09
   22.26000     -8.2687670E-09
   22.32000     -7.8048714E-09
   22.38000     -7.3611970E-09
   22.44000     -6.9460113E-09
   22.50000     -6.5638979E-09
   22.56000     -6.2163541E-09
   22.62000     -5.9014673E-09
   22.68000     -5.6147131E-09
   22.74000     -5.3524674E-09
   22.80000     -5.1175024E-09
   22.86000     -4.9233950E-09
   22.92000     -4.7943391E-09
   22.98000     -4.7588840E-09
   23.04000     -4.8394586E-09
   23.10000     -5.0420317E-09
   23.16000     -5.3503979E-09
   23.22000     -5.7273195E-09
   23.28000     -6.1216037E-09
   23.34000     -6.4779062E-09
   23.40000     -6.7457262E-09
   23.46000     -6.8854100E-09
   23.52000     -6.8709372E-09
   23.58000     -6.6905272E-09
   23.64000     -6.3462466E-09
   23.70000     -5.8530336E-09
   23.76000     -5.2368039E-09
   23.82000     -4.5311359E-09
   23.88000     -3.7727155E-09
   23.94000     -2.9966722E-09
   24.00000     -2.2334752E-09
   24.06000     -1.5086022E-09
   24.12000     -8.4483681E-10
   24.18000     -2.6550731E-10
   24.24000      2.0373205E-10
   24.30000      5.3629273E-10
   24.36000      7.0906181E-10
   24.42000      7.0774425E-10
   24.48000      5.3029270E-10
   24.54000      1.8661196E-10
   24.60000     -3.0507175E-10
   24.66000     -9.2283881E-10
   24.72000     -1.6440498E-09
   24.78000     -2.4455469E-09
   24.84000     -3.3022580E-09
   24.90000     -4.1866972E-09
   24.96000     -5.0711315E-09
   25.02000     -5.9318990E-09
   25.08000     -6.7531896E-09
   25.14000     -7.5272411E-09
   25.20000     -8.2498941E-09
   25.26000     -8.9134042E-09
   25.32000     -9.5003898E-09
   25.38000     -9.9823065E-09
   25.44000     -1.0323280E-08
   25.50000     -1.0487205E-08
   25.56000     -1.0444801E-08
   25.62000     -1.0178246E-08
   25.68000     -9.6832533E-09
   25.74000     -8.9699297E-09
   25.80000     -8.0634628E-09
   25.86000     -7.0039774E-09
   25.92000     -5.8435110E-09
   25.98000     -4.6385114E-09
   26.04000     -3.4386605E-09
   26.10000     -2.2755995E-09
   26.16000     -1.1562586E-09
   26.22000     -6.3891677E-11
   26.28000      1.0335552E-09
   26.34000      2.1713937E-09
   26.40000      3.3772520E-09
   26.46000      4.6646353E-09
   26.52000      6.0316321E-09
   26.58000      7.4632078E-09
   26.64000      8.9349159E-09
   26.70000      1.0416655E-08
   26.76000      1.1876144E-08
   26.82000      1.3282055E-08
   26.88000      1.4606350E-08
   26.94000      1.5824952E-08
   27.00000      1.6916404E-08
   27.06000      1.7859247E-08
   27.12000      1.8629940E-08
   27.18000      1.9203098E-08
   27.24000      1.9554621E-08
   27.30000      1.9666738E-08
   27.36000      1.9533074E-08
   27.42000      1.9162064E-08
   27.48000      1.8577694E-08
   27.54000      1.7816998E-08
   27.60000      1.6923780E-08
   27.66000      1.5938310E-08
   27.72000      1.4884187E-08
   27.78000      1.3756180E-08
   27.84000      1.2514835E-08
   27.90000      1.1092911E-08
   27.96000      9.4141983E-09
   28.02000      7.4187745E-09
   28.08000      5.0840532E-09
   28.14000      2.4316109E-09
   28.20000     -4.8360171E-10
   28.26000     -3.5959407E-09
   28.32000     -6.8517667E-09
   28.38000     -1.0221092E-08
   28.44000     -1.3694444E-08
   28.50000     -1.7270297E-08
   28.56000     -2.0943265E-08
   28.62000     -2.4700812E-08
   28.68000     -2.8528731E-08
   28.74000     -3.2418559E-08
   28.80000     -3.6368867E-08
   28.86000     -4.0377408E-08
   28.92000     -4.4428976E-08
   28.98000     -4.8487983E-08
   29.04000     -5.2502436E-08
   29.10000     -5.6418301E-08
   29.16000     -6.0195923E-08
   29.22000     -6.3818405E-08
   29.28000     -6.7286884E-08
   29.34000     -7.0606113E-08
   29.40000     -7.3769726E-08
   29.46000     -7.6754290E-08
   29.52000     -7.9525215E-08
   29.58000     -8.2050086E-08
   29.64000     -8.4310891E-08
   29.70000     -8.6308113E-08
   29.76000     -8.8055209E-08
   29.82000     -8.9567436E-08
   29.88000     -9.0851223E-08
   29.94000     -9.1898933E-08
   30.00000     -9.2689831E-08
   30.06000     -9.3195439E-08
   30.12000     -9.3385907E-08
   30.18000     -9.3235300E-08
   30.24000     -9.2725152E-08
   30.30000     -9.1846772E-08
   30.36000     -9.0603145E-08
   30.42000     -8.9010868E-08
   30.48000     -8.7101625E-08
   30.54000     -8.4921993E-08
   30.60000     -8.2530143E-08
   30.66000     -7.9988425E-08
   30.72000     -7.7352958E-08
   30.78000     -7.4663170E-08
   30.84000     -7.1935766E-08
   30.90000     -6.9166568E-08
   30.96000     -6.6339958E-08
   31.02000     -6.3441767E-08
   31.08000     -6.0469041E-08
   31.14000     -5.7431890E-08
   31.20000     -5.4347304E-08
   31.26000     -5.1230188E-08
   31.32000     -4.8088530E-08
   31.38000     -4.4926896E-08
   31.44000     -4.1756621E-08
   31.50000     -3.8606171E-08
   31.56000     -3.5524639E-08
   31.62000     -3.2575617E-08
   31.68000     -2.9824530E-08
   31.74000     -2.7326303E-08
   31.80000     -2.5118769E-08
   31.86000     -2.3222753E-08
   31.92000     -2.1644830E-08
   31.98000     -2.0377934E-08
   32.04000     -1.9398220E-08
   32.10000     -1.8661746E-08
   32.16000     -1.8107231E-08
   32.22000     -1.7668997E-08
   32.28000     -1.7297996E-08
   32.34000     -1.6982440E-08
   32.40000     -1.6757371E-08
   32.46000     -1.6696353E-08
   32.52000     -1.6886800E-08
   32.58000     -1.7398641E-08
   32.64000     -1.8259648E-08
   32.70000     -1.9447743E-08
   32.76000     -2.0902535E-08
   32.82000     -2.2549447E-08
   32.88000     -2.4324832E-08
   32.94000     -2.6191442E-08
   33.00000     -2.8139986E-08
   33.06000     -3.0179955E-08
   33.12000     -3.2327527E-08
   33.18000     -3.4597701E-08
   33.24000     -3.7002891E-08
   33.30000     -3.9554671E-08
   33.36000     -4.2263142E-08
   33.42000     -4.5130879E-08
   33.48000     -4.8143587E-08
   33.54000     -5.1263779E-08
   33.60000     -5.4433123E-08
   33.66000     -5.7584256E-08
   33.72000     -6.0656575E-08
   33.78000     -6.3607736E-08
   33.84000     -6.6415247E-08
   33.90000     -6.9069038E-08
   33.96000     -7.1561885E-08
   34.02000     -7.3884877E-08
   34.08000     -7.6030737E-08
   34.14000     -7.8000774E-08
   34.20000     -7.9807769E-08
   34.26000     -8.1469871E-08
   34.32000     -8.2997275E-08
   34.38000     -8.4380147E-08
   34.44000     -8.5586443E-08
   34.50000     -8.6572669E-08
   34.56000     -8.7301956E-08
   34.62000     -8.7758650E-08
   34.68000     -8.7950440E-08
   34.74000     -8.7896829E-08
   34.80000     -8.7611461E-08
   34.86000     -8.7089347E-08
   34.92000     -8.6306947E-08
   34.98000     -8.5235158E-08
   35.04000     -8.3857749E-08
   35.10000     -8.2185331E-08
   35.16000     -8.0258104E-08
   35.22000     -7.8136665E-08
   35.28000     -7.5885737E-08
   35.34000     -7.3557779E-08
   35.40000     -7.1181951E-08
   35.46000     -6.8761182E-08
   35.52000     -6.6276641E-08
   35.58000     -6.3697257E-08
   35.64000     -6.0990963E-08
   35.70000     -5.8134582E-08
   35.76000     -5.5120225E-08
   35.82000     -5.1957556E-08
   35.88000     -4.8672590E-08
   35.94000     -4.5304372E-08
   36.00000     -4.1900208E-08
   36.06000     -3.8509231E-08
   36.12000     -3.5174171E-08
   36.18000     -3.1922557E-08
   36.24000     -2.8760986E-08
   36.30000     -2.5676689E-08
   36.36000     -2.2648120E-08
   36.42000     -1.9661169E-08
   36.48000     -1.6722897E-08
   36.54000     -1.3864320E-08
   36.60000     -1.1129067E-08
   36.66000     -8.5532132E-09
   36.72000     -6.1477539E-09
   36.78000     -3.8945460E-09
   36.84000     -1.7586811E-09
   36.90000      2.8992178E-10
   36.96000      2.2588298E-09
   37.02000      4.1298702E-09
   37.08000      5.8715024E-09
   37.14000      7.4579694E-09
   37.20000      8.8825907E-09
   37.26000      1.0157231E-08
   37.32000      1.1299651E-08
   37.38000      1.2318347E-08
   37.44000      1.3205381E-08
   37.50000      1.3941542E-08
   37.56000      1.4509577E-08
   37.62000      1.4906231E-08
   37.68000      1.5145309E-08
   37.74000      1.5250299E-08
   37.80000      1.5241474E-08
   37.86000      1.5124863E-08
   37.92000      1.4888168E-08
   37.98000      1.4504089E-08
   38.04000      1.3937959E-08
   38.10000      1.3155977E-08
   38.16000      1.2131895E-08
   38.22000      1.0851886E-08
   38.28000      9.3179358E-09
   38.34000      7.5495814E-09
   38.40000      5.5831366E-09
   38.46000      3.4677408E-09
   38.52000      1.2584832E-09
   38.58000     -9.9209430E-10
   38.64000     -3.2423086E-09
   38.70000     -5.4675673E-09
   38.76000     -7.6627318E-09
   38.82000     -9.8391757E-09
   38.88000     -1.2016212E-08
   38.94000     -1.4208868E-08
   39.00000     -1.6416406E-08
   39.06000     -1.8617083E-08
   39.12000     -2.0772388E-08
   39.18000     -2.2839279E-08
   39.24000     -2.4783985E-08
   39.30000     -2.6589687E-08
   39.36000     -2.8254137E-08
   39.42000     -2.9780168E-08
   39.48000     -3.1167286E-08
   39.54000     -3.2412171E-08
   39.60000     -3.3519221E-08
   39.66000     -3.4514155E-08
   39.72000     -3.5449620E-08
   39.78000     -3.6395484E-08
   39.84000     -3.7416061E-08
   39.90000     -3.8545576E-08
   39.96000     -3.9775188E-08
   40.02000     -4.1058613E-08
   40.08000     -4.2332562E-08
   40.14000     -4.3540393E-08
   40.20000     -4.4647127E-08
   40.26000     -4.5641091E-08
   40.32000     -4.6525898E-08
   40.38000     -4.7310902E-08
   40.44000     -4.8005667E-08
   40.50000     -4.8618411E-08
   40.56000     -4.9154345E-08
   40.62000     -4.9611330E-08
   40.68000     -4.9975171E-08
   40.74000     -5.0220709E-08
   40.80000     -5.0322878E-08
   40.86000     -5.0275055E-08
   40.92000     -5.0104763E-08
   40.98000     -4.9875204E-08
   41.04000     -4.9667463E-08
   41.10000     -4.9549069E-08
   41.16000     -4.9543225E-08
   41.22000     -4.9613789E-08
   41.28000     -4.9673531E-08
   41.34000     -4.9612066E-08
   41.40000     -4.9331337E-08
   41.46000     -4.8775181E-08
   41.52000     -4.7943757E-08
   41.58000     -4.6890896E-08
   41.64000     -4.5707363E-08
   41.70000     -4.4495710E-08
   41.76000     -4.3342638E-08
   41.82000     -4.2294996E-08
   41.88000     -4.1345896E-08
   41.94000     -4.0436085E-08
   42.00000     -3.9472013E-08
   42.06000     -3.8356120E-08
   42.12000     -3.7019728E-08
   42.18000     -3.5447133E-08
   42.24000     -3.3682859E-08
   42.30000     -3.1820321E-08
   42.36000     -2.9976551E-08
   42.42000     -2.8261441E-08
   42.48000     -2.6750248E-08
   42.54000     -2.5466392E-08
   42.60000     -2.4378902E-08
   42.66000     -2.3415836E-08
   42.72000     -2.2490882E-08
   42.78000     -2.1535731E-08
   42.84000     -2.0527212E-08
   42.90000     -1.9498374E-08
   42.96000     -1.8528214E-08
   43.02000     -1.7713569E-08
   43.08000     -1.7134694E-08
   43.14000     -1.6828423E-08
   43.20000     -1.6778507E-08
   43.26000     -1.6924140E-08
   43.32000     -1.7180399E-08
   43.38000     -1.7461778E-08
   43.44000     -1.7702494E-08
   43.50000     -1.7871070E-08
   43.56000     -1.7978314E-08
   43.62000     -1.8076612E-08
   43.68000     -1.8247226E-08
   43.74000     -1.8574449E-08
   43.80000     -1.9112253E-08
   43.86000     -1.9856015E-08
   43.92000     -2.0734014E-08
   43.98000     -2.1626612E-08
   44.04000     -2.2408100E-08
   44.10000     -2.2993849E-08
   44.16000     -2.3371777E-08
   44.22000     -2.3604276E-08
   44.28000     -2.3801189E-08
   44.34000     -2.4077490E-08
   44.40000     -2.4514316E-08
   44.46000     -2.5137290E-08
   44.52000     -2.5915952E-08
   44.58000     -2.6779190E-08
   44.64000     -2.7637785E-08
   44.70000     -2.8406715E-08
   44.76000     -2.9023241E-08
   44.82000     -2.9458908E-08
   44.88000     -2.9723990E-08
   44.94000     -2.9862967E-08
   45.00000     -2.9941205E-08
   45.06000     -3.0026339E-08
   45.12000     -3.0170320E-08
   45.18000     -3.0398514E-08
   45.24000     -3.0709138E-08
   45.30000     -3.1082106E-08
   45.36000     -3.1492945E-08
   45.42000     -3.1926582E-08
   45.48000     -3.2386726E-08
   45.54000     -3.2898381E-08
   45.60000     -3.3502626E-08
   45.66000     -3.4244280E-08
   45.72000     -3.5155292E-08
   45.78000     -3.6239040E-08
   45.84000     -3.7461866E-08
   45.90000     -3.8756557E-08
   45.96000     -4.0037836E-08
   46.02000     -4.1224435E-08
   46.08000     -4.2259401E-08
   46.14000     -4.3121354E-08
   46.20000     -4.3824421E-08
   46.26000     -4.4409617E-08
   46.32000     -4.4933056E-08
   46.38000     -4.5454783E-08
   46.44000     -4.6028983E-08
   46.50000     -4.6694140E-08
   46.56000     -4.7462969E-08
   46.62000     -4.8314817E-08
   46.68000     -4.9195275E-08
   46.74000     -5.0026159E-08
   46.80000     -5.0724228E-08
   46.86000     -5.1221953E-08
   46.92000     -5.1481763E-08
   46.98000     -5.1498230E-08
   47.04000     -5.1288698E-08
   47.10000     -5.0878597E-08
   47.16000     -5.0289326E-08
   47.22000     -4.9533945E-08
   47.28000     -4.8620873E-08
   47.34000     -4.7561510E-08
   47.40000     -4.6376449E-08
   47.46000     -4.5096577E-08
   47.52000     -4.3758604E-08
   47.58000     -4.2396994E-08
   47.64000     -4.1035481E-08
   47.70000     -3.9681083E-08
   47.76000     -3.8322554E-08
   47.82000     -3.6934228E-08
   47.88000     -3.5484888E-08
   47.94000     -3.3949860E-08
   48.00000     -3.2323072E-08
   48.06000     -3.0625056E-08
   48.12000     -2.8903310E-08
   48.18000     -2.7223681E-08
   48.24000     -2.5654474E-08
   48.30000     -2.4247980E-08
   48.36000     -2.3025619E-08
   48.42000     -2.1972166E-08
   48.48000     -2.1041444E-08
   48.54000     -2.0171651E-08
   48.60000     -1.9304682E-08
   48.66000     -1.8402114E-08
   48.72000     -1.7451965E-08
   48.78000     -1.6464456E-08
   48.84000     -1.5459838E-08
   48.90000     -1.4454690E-08
   48.96000     -1.3453277E-08
   49.02000     -1.2447512E-08
   49.08000     -1.1424734E-08
   49.14000     -1.0378936E-08
   49.20000     -9.3202326E-09
   49.26000     -8.2788238E-09
   49.32000     -7.3025697E-09
   49.38000     -6.4496146E-09
   49.44000     -5.7787233E-09
   49.50000     -5.3400968E-09
   49.56000     -5.1692122E-09
   49.62000     -5.2857860E-09
   49.68000     -5.6990657E-09
   49.74000     -6.4188432E-09
   49.80000     -7.4692501E-09
   49.86000     -8.9007912E-09
   49.92000     -1.0796376E-08
   49.98000     -1.3269680E-08
   50.04000     -1.6457870E-08
   50.10000     -2.0513216E-08
   50.16000     -2.5598137E-08
   50.22000     -3.1885829E-08
   50.28000     -3.9565620E-08
   50.34000     -4.8850598E-08
   50.40000     -5.9985695E-08
   50.46000     -7.3256103E-08
   50.52000     -8.8997403E-08
   50.58000     -1.0760817E-07
   50.64000     -1.2956389E-07
   50.70000     -1.5542970E-07
   50.76000     -1.8586951E-07
   50.82000     -2.2165089E-07
   50.88000     -2.6364881E-07
   50.94000     -3.1285222E-07
   51.00000     -3.7037708E-07
   51.06000     -4.3748750E-07
   51.12000     -5.1562245E-07
   51.18000     -6.0642424E-07
   51.24000     -7.1176419E-07
   51.30000     -8.3376227E-07
   51.36000     -9.7480188E-07
   51.42000     -1.1375414E-06
   51.48000     -1.3249296E-06
   51.54000     -1.5402321E-06
   51.60000     -1.7870690E-06
   51.66000     -2.0694640E-06
   51.72000     -2.3918969E-06
   51.78000     -2.7593524E-06
   51.84000     -3.1773570E-06
   51.90000     -3.6520057E-06
   51.96000     -4.1899871E-06
   52.02000     -4.7986146E-06
   52.08000     -5.4858624E-06
   52.14000     -6.2604136E-06
   52.20000     -7.1316981E-06
   52.26000     -8.1099279E-06
   52.32000     -9.2061218E-06
   52.38000     -1.0432128E-05
   52.44000     -1.1800650E-05
   52.50000     -1.3325283E-05
   52.56000     -1.5020550E-05
   52.62000     -1.6901906E-05
   52.68000     -1.8985756E-05
   52.74000     -2.1289428E-05
   52.80000     -2.3831166E-05
   52.86000     -2.6630116E-05
   52.92000     -2.9706311E-05
   52.98000     -3.3080640E-05
   53.04000     -3.6774803E-05
   53.10000     -4.0811188E-05
   53.16000     -4.5212801E-05
   53.22000     -5.0003149E-05
   53.28000     -5.5206143E-05
   53.34000     -6.0846000E-05
   53.40000     -6.6947148E-05
   53.46000     -7.3534102E-05
   53.52000     -8.0631267E-05
   53.58000     -8.8262808E-05
   53.64000     -9.6452408E-05
   53.70000     -1.0522304E-04
   53.76000     -1.1459671E-04
   53.82000     -1.2459424E-04
   53.88000     -1.3523505E-04
   53.94000     -1.4653700E-04
   54.00000     -1.5851611E-04
   54.06000     -1.7118636E-04
   54.12000     -1.8455931E-04
   54.18000     -1.9864397E-04
   54.24000     -2.1344646E-04
   54.30000     -2.2896982E-04
   54.36000     -2.4521386E-04
   54.42000     -2.6217484E-04
   54.48000     -2.7984520E-04
   54.54000     -2.9821336E-04
   54.60000     -3.1726374E-04
   54.66000     -3.3697666E-04
   54.72000     -3.5732819E-04
   54.78000     -3.7828999E-04
   54.84000     -3.9982930E-04
   54.90000     -4.2190892E-04
   54.96000     -4.4448714E-04
   55.02000     -4.6751794E-04
   55.08000     -4.9095141E-04
   55.14000     -5.1473372E-04
   55.20000     -5.3880713E-04
   55.26000     -5.6310999E-04
   55.32000     -5.8757747E-04
   55.38000     -6.1214162E-04
   55.44000     -6.3673215E-04
   55.50000     -6.6127686E-04
   55.56000     -6.8570185E-04